data.lammps 

100 	 atoms 
4  atom types
0.0               10.905291  xlo xhi
0.0               11.252051  ylo yhi
0.0                8.001932  zlo zhi
    -4.5241199999999999               -0.181087    -0.64939199999999997  xy xz yz


Masses 

1  12.0000
2  1.0080
3  14.0000
4  15.9990


Atoms 

     1   1   0.0      3.2683037160000015             5.454508294      4.4376200250000002
     2   1   0.0      2.1004231199999994      5.9564722659999996      6.6101236620000003
     3   1   0.0     0.80874973299999975      3.8235520029999996      6.0567122099999997
     4   1   0.0     0.93546764299999963              4.83095008      3.7104046049999999
     5   1   0.0      8.4087106259999995     0.31545796400000009      7.3196336520000003
     6   1   0.0      8.4292973799999995     0.51015624900000001      5.7318942330000002
     7   1   0.0      6.0000410410000002     0.67191618399999997      7.3493609920000003
     8   1   0.0      5.9949311879999998     0.82043814199999998      5.7950409799999996
     9   1   0.0      6.7032659120000009      2.8448383580000001             6.782982391
    10   1   0.0      8.2646584769999993      2.6612850350000006      6.7901867429999996
    11   1   0.0     -1.5635842760000001      9.8573613299999998     0.54320431899999999
    12   1   0.0     -3.1327253740000001      9.6655462589999992     0.54495312399999996
    13   1   0.0     -1.3752725080000003      7.3385821690000013     0.26205995799999998
    14   1   0.0      7.9571476980000009       7.225728064000001             0.245624488
    15   1   0.0     -2.1656168480000004      7.4332601330000001      2.4733971729999999
    16   1   0.0     -2.3129229539999998      9.0051866900000004      2.6445503590000001
    17   4   0.0      1.1194281160000001      2.2573848600000002             2.874832348
    18   4   0.0     0.75162413700000008             1.474696024      4.9306508820000001
    19   4   0.0      2.9783678159999996      2.3963881570000005      6.8485158889999997
    20   4   0.0      4.1107468220000003      4.3286203529999998      7.2272650020000002
    21   4   0.0      2.0915792500000001      8.4345045649999992               5.8411355
    22   4   0.0      3.2258209360000003      8.0253956280000001             3.964068567
    23   4   0.0             4.091597771      4.6214499619999998             2.084636524
    24   4   0.0      1.9324028390000003      4.4220359020000002             1.321865106
    25   4   0.0      8.7898865690000001      1.9432999850000001             3.362002226
    26   4   0.0      8.6636377580000001      3.8290406569999997      4.4850292449999998
    27   4   0.0    -0.71007229299999741      3.7443169960000002     0.96035731599999885
    28   4   0.0     0.16332021800000018      1.8408458140000001    0.038948869999998782
    29   4   0.0      6.4681178609999996      1.8830559469999999      1.9517237630000008
    30   4   0.0      6.9545140520000013      4.0632050609999997      1.4569696930000002
    31   4   0.0      5.8597630169999997      4.1528359899999998      4.6361898899999998
    32   4   0.0      4.5103009280000013             2.360972582      4.0692917030000002
    33   4   0.0      3.6250055799999998      10.537009593000001       3.300387026000001
    34   4   0.0      1.3427200069999992      10.646635496000002      3.5236332859999999
    35   4   0.0      3.6552534570000002      9.7320738749999993      0.4502632579999995
    36   4   0.0      1.4873409700000009            10.116879783     0.62793202100000001
    37   4   0.0      10.408618625000001    -0.14336115799999949      1.8587951089999999
    38   4   0.0      6.4675517010000014             10.22438124      3.8694996179999999
    39   4   0.0      3.1408865499999989     0.11431974700000024      3.6934443629999998
    40   4   0.0      3.6941883299999994     0.86058100900000079             1.673178096
    41   4   0.0             1.136327307      7.3967960269999997      1.2062440910000001
    42   4   0.0     0.36925795500000058      7.9295997090000006      3.2566265379999999
    43   4   0.0      6.1554280489999975      7.0412042770000012      3.3457961109999999
    44   4   0.0      5.3744410330000001      7.0350887579999997      1.2314849839999999
    45   4   0.0      5.6244452359999997      8.8912521729999998      6.6880962460000015
    46   4   0.0             5.791198048      6.6636340970000045      6.4376083310000016
    47   4   0.0     -1.0069471619999997      9.3713146379999994      5.9965610380000003
    48   4   0.0    -0.83636737699999986      7.1069503530000002      5.7057595220000001
    49   3   0.0             2.282542206      5.1889498889999999      3.3814660339999998
    50   3   0.0      2.7434694989999997      6.3736115760000001      5.3854026939999997
    51   3   0.0      2.0050215229999999      4.5004221409999996      6.5716419789999998
    52   3   0.0     0.87284472899999999      3.6952919519999998             4.636717687
    53   3   0.0      1.0115078330000002             2.362122115             4.111929409
    54   3   0.0      3.1139996520000004      3.6488811630000004      6.9076463639999997
    55   3   0.0      2.7637563829999996       7.733843213000001             5.072923812
    56   3   0.0      2.8475890850000005      4.6457202029999998      2.1773089240000001
    57   3   0.0      7.1281726939999999            -0.215109313      7.6802535729999999
    58   3   0.0      6.1768380340000002      2.2297395899999999      5.5434297680000002
    59   3   0.0      8.6507315659999993      1.9392343969999999      5.6312357579999999
    60   3   0.0      8.7026540719999996             2.607001033      4.3851940709999999
    61   3   0.0      8.5589478400000001      1.6798357489999998      7.8584217589999996
    62   3   0.0    -0.74875285599999852             2.580004856     0.40964313499999905
    63   3   0.0       6.158395263000001      2.0260338510000002      7.8624911129999999
    64   3   0.0      6.6064519759999998      2.8828542849999996             1.238348657
    65   3   0.0      5.4706062419999988      2.9375195629999999      4.5888096860000003
    66   3   0.0      7.1376117349999992    0.023840385000000013      5.2080991330000002
    67   3   0.0      2.5123078600000017      10.830040303000001       3.897823031000001
    68   3   0.0      2.6367418970000003      10.426807116000001     0.27620102899999943
    69   3   0.0     -1.3056069170000002      8.0601207539999997      7.7326251209999999
    70   3   0.0      7.6092186219999984      6.9329235070000008             1.638105758
    71   3   0.0            -3.534006314      9.4803321159999996      1.9305992219999999
    72   3   0.0      6.4544223540000019            10.272188666             2.591362792
    73   3   0.0     -1.2551832000000003      9.7380822130000002             1.956834043
    74   3   0.0      3.3688000029999992  -0.0016256040000002967      2.4902811709999999
    75   3   0.0     -1.0390780690000003      7.2103249070000004             1.652782953
    76   3   0.0     0.31022057400000019      7.5823622249999998      2.0853078530000002
    77   3   0.0      6.2904040020000007       6.989837875000001      2.1032021580000002
    78   3   0.0      7.2623527830000008      7.8279132060000007      7.7637929760000022
    79   3   0.0      6.1899353270000006      7.8083579410000015      6.8452565249999999
    80   3   0.0    -0.98591987700000028      8.1957732620000012      6.3884299430000011
    81   2   0.0      3.5432614700000009      4.5314929509999997      4.9858024099999998
    82   2   0.0      4.1342009500000003      5.9219616930000001             3.936954123
    83   2   0.0             1.125675083      6.4403414999999997      6.8088593910000004
    84   2   0.0      2.7983326589999997      6.1873329179999992      7.4139563119999998
    85   2   0.0    -0.10682622600000001             4.353164842             6.348847138
    86   2   0.0     0.78733495799999975      2.8079891940000001      6.4630048970000002
    87   2   0.0     0.40926345100000006      4.6103950500000002      2.7527342859999999
    88   2   0.0     0.45793637400000037             5.707650407      4.1974866649999996
    89   2   0.0      9.2573958919999999    -0.36514866299999998      7.6441172030000004
    90   2   0.0      5.0416352560000002     0.25572931399999999      7.7037350169999996
    91   2   0.0      5.0458781970000004     0.48840764200000003      5.3015780479999997
    92   2   0.0             6.442181991      3.9177857760000001      6.8744821890000001
    93   2   0.0      8.7836533960000001      3.6486643030000003      6.9228397590000004
    94   2   0.0      9.3003128119999996   -0.054312596000000025             5.314619424
    95   2   0.0     -1.2640532899999997             10.83129984    0.077876823999999997
    96   2   0.0     -1.1074095720000001      5.8851682619999988      7.6770079260000017
    97   2   0.0      7.4646070109999991      5.7604552670000002      7.6085041960000002
    98   2   0.0     -2.0915837050000001       6.890015116999999             3.477113165
    99   2   0.0            -2.351792391      9.2713554620000007      3.7310501559999998
   100   2   0.0     -3.6490006450000005            10.508617333    0.053666057000000003
