LAMMPS (28 Mar 2023)
Reading data file ...
  triclinic box = (0 0 0) to (10.905291 11.252051 8.001932) with tilt (-4.52412 -0.181087 -0.649392)
  1 by 1 by 1 MPI processor grid
  reading atoms ...
  100 atoms
  read_data CPU = 0.000 seconds

CITE-CITE-CITE-CITE-CITE-CITE-CITE-CITE-CITE-CITE-CITE-CITE-CITE

Your simulation uses code contributions which should be cited:
- pair reaxff command: doi:10.1016/j.parco.2011.08.005
- fix qeq/reaxff command: doi:10.1016/j.parco.2011.08.005
The log file lists these citations in BibTeX format.

CITE-CITE-CITE-CITE-CITE-CITE-CITE-CITE-CITE-CITE-CITE-CITE-CITE

Neighbor list info ...
  update: every = 1 steps, delay = 1 steps, check = no
  max neighbors/atom: 2000, page size: 200000
  master list distance cutoff = 12.5
  ghost atom cutoff = 12.5
  binsize = 6.25, bins = 3 2 2
  2 neighbor lists, perpetual/occasional/extra = 2 0 0
  (1) pair reaxff, perpetual
      attributes: half, newton off, ghost
      pair build: half/bin/newtoff/ghost
      stencil: full/ghost/bin/3d
      bin: standard
  (2) fix qeq/reaxff, perpetual, copy from (1)
      attributes: half, newton off
      pair build: copy
      stencil: none
      bin: none
Setting up Verlet run ...
  Unit style    : real
  Current step  : 0
  Time step     : 0.1
Per MPI rank memory allocation (min/avg/max) = 87.18 | 87.18 | 87.18 Mbytes
   Step          Temp          E_pair         TotEng         Press          Volume         Cella          Cellb          Cellc        CellAlpha       CellBeta      CellGamma         Pxx            Pyy            Pzz            Pxy            Pxz            Pyz      
         0   0             -4540.5617     -4540.5617      9968.0009      981.89219      10.905291      12.127502      8.0302813      93.819752      91.292159      111.90361      10884.081     -1534.1955      20554.117      2556.4394     -1477.869      -2300.4984    
         1   0.049075295   -4540.5756     -4540.5611      9971.3865      981.89219      10.905291      12.127502      8.0302813      93.819752      91.292159      111.90361      10888.913     -1529.7968      20555.043      2555.1365     -1477.4291     -2300.4862    
         2   0.19615694    -4540.6172     -4540.5593      9981.5584      981.89219      10.905291      12.127502      8.0302813      93.819752      91.292159      111.90361      10903.002     -1516.5866      20558.26       2550.869      -1476.1676     -2301.0782    
         3   0.44081282    -4540.6864     -4540.5564      9998.4613      981.89219      10.905291      12.127502      8.0302813      93.819752      91.292159      111.90361      10926.624     -1494.5813      20563.341      2544.0365     -1473.8664     -2301.6998    
         4   0.78232376    -4540.7831     -4540.5522      10022.144      981.89219      10.905291      12.127502      8.0302813      93.819752      91.292159      111.90361      10959.521     -1463.3347      20570.245      2534.1173     -1470.8675     -2302.7955    
         5   1.2196894     -4540.9015     -4540.5416      10053.724      981.89219      10.905291      12.127502      8.0302813      93.819752      91.292159      111.90361      11001.972     -1421.9047      20581.105      2521.7787     -1467.4985     -2305.7384    
         6   1.7516325     -4541.052      -4540.5351      10090.808      981.89219      10.905291      12.127502      8.0302813      93.819752      91.292159      111.90361      11053.545     -1373.3132      20592.192      2506.5012     -1462.693      -2307.3995    
         7   2.3766025     -4541.2288     -4540.5275      10134.554      981.89219      10.905291      12.127502      8.0302813      93.819752      91.292159      111.90361      11114.308     -1316.0493      20605.404      2488.4997     -1456.7281     -2309.2948    
         8   3.0927832     -4541.4314     -4540.5187      10184.668      981.89219      10.905291      12.127502      8.0302813      93.819752      91.292159      111.90361      11184.201     -1250.231       20620.033      2467.6084     -1450.1547     -2311.5007    
         9   3.8981022     -4541.6591     -4540.5088      10241.288      981.89219      10.905291      12.127502      8.0302813      93.819752      91.292159      111.90361      11263.107     -1175.8545      20636.611      2444.0229     -1442.8628     -2313.9977    
        10   4.7902442     -4541.9113     -4540.4977      10304.682      981.89219      10.905291      12.127502      8.0302813      93.819752      91.292159      111.90361      11351.426     -1092.576       20655.195      2417.9992     -1434.6291     -2316.7255    
        11   5.7666602     -4542.1872     -4540.4855      10374.713      981.89219      10.905291      12.127502      8.0302813      93.819752      91.292159      111.90361      11448.818     -1000.6226      20675.944      2389.1577     -1425.3355     -2319.5408    
        12   6.8245758     -4542.4861     -4540.4722      10450.469      981.89219      10.905291      12.127502      8.0302813      93.819752      91.292159      111.90361      11554.517     -900.96203      20697.851      2357.7114     -1415.1853     -2322.698     
        13   7.9610034     -4542.8072     -4540.4579      10531.941      981.89219      10.905291      12.127502      8.0302813      93.819752      91.292159      111.90361      11668.517     -793.5482       20720.854      2323.6567     -1404.2637     -2326.104     
        14   9.1727603     -4543.1494     -4540.4425      10619.35       981.89219      10.905291      12.127502      8.0302813      93.819752      91.292159      111.90361      11791.118     -678.04749      20744.978      2287.2892     -1392.4583     -2329.7031    
        15   10.456484     -4543.5117     -4540.426       10713.185      981.89219      10.905291      12.127502      8.0302813      93.819752      91.292159      111.90361      11922.497     -554.0263       20771.086      2248.2949     -1379.6239     -2333.3246    
        16   11.808638     -4543.8933     -4540.4086      10819.977      981.89219      10.905291      12.127502      8.0302813      93.819752      91.292159      111.90361      12083.473     -421.93658      20798.394      2204.2558     -1365.2088     -2337.2123    
        17   13.225542     -4544.2928     -4540.39        10925.616      981.89219      10.905291      12.127502      8.0302813      93.819752      91.292159      111.90361      12231.305     -282.17431      20827.719      2160.238      -1350.9014     -2341.1841    
        18   14.703384     -4544.7092     -4540.3703      11037.272      981.89219      10.905291      12.127502      8.0302813      93.819752      91.292159      111.90361      12387.507     -134.17402      20858.484      2114.1464     -1335.4265     -2345.3025    
        19   16.238229     -4545.1417     -4540.3498      11153.381      981.89219      10.905291      12.127502      8.0302813      93.819752      91.292159      111.90361      12550.634      20.156336      20889.352      2065.6556     -1319.0658     -2349.5263    
        20   17.82604      -4545.5889     -4540.3284      11273.974      981.89219      10.905291      12.127502      8.0302813      93.819752      91.292159      111.90361      12720.69       180.82591      20920.407      2014.8627     -1301.9963     -2353.9103    
        21   19.462694     -4546.0493     -4540.3059      11400.794      981.89219      10.905291      12.127502      8.0302813      93.819752      91.292159      111.90361      12898.987      350.00123      20953.392      1961.8942     -1284.085      -2358.3288    
        22   21.144011     -4546.522      -4540.2824      11532.966      981.89219      10.905291      12.127502      8.0302813      93.819752      91.292159      111.90361      13084.688      526.54876      20987.661      1906.8341     -1265.3387     -2362.8626    
        23   22.865763     -4547.0058     -4540.2581      11669.424      981.89219      10.905291      12.127502      8.0302813      93.819752      91.292159      111.90361      13276.899      709.04166      21022.33       1849.6762     -1245.4681     -2367.4534    
        24   24.623691     -4547.4996     -4540.2331      11809.307      981.89219      10.905291      12.127502      8.0302813      93.819752      91.292159      111.90361      13474.561      896.73761      21056.623      1790.4536     -1224.6919     -2372.1346    
        25   26.413522     -4548.0018     -4540.2072      11954.014      981.89219      10.905291      12.127502      8.0302813      93.819752      91.292159      111.90361      13679.141      1091.2851      21091.615      1729.3091     -1203.4962     -2376.8938    
        26   28.230996     -4548.4986     -4540.1676      12105.754      981.89219      10.905291      12.127502      8.0302813      93.819752      91.292159      111.90361      13887.411      1302.5975      21127.253      1669.484      -1179.8242     -2379.3337    
        27   30.071887     -4549.0142     -4540.14        12258.869      981.89219      10.905291      12.127502      8.0302813      93.819752      91.292159      111.90361      14103.953      1509.0417      21163.611      1604.7423     -1156.5926     -2384.2503    
        28   31.93201      -4549.5348     -4540.1117      12414.757      981.89219      10.905291      12.127502      8.0302813      93.819752      91.292159      111.90361      14325.225      1720.1144      21198.931      1538.2497     -1132.8113     -2389.1586    
        29   33.807244     -4550.0592     -4540.0826      12574.177      981.89219      10.905291      12.127502      8.0302813      93.819752      91.292159      111.90361      14551.607      1936.4294      21234.494      1470.1136     -1108.3962     -2394.168     
        30   35.693551     -4550.586      -4540.0528      12736.862      981.89219      10.905291      12.127502      8.0302813      93.819752      91.292159      111.90361      14782.893      2157.8382      21269.855      1400.4263     -1083.1155     -2399.3211    
        31   37.587001     -4551.1142     -4540.0223      12902.126      981.89219      10.905291      12.127502      8.0302813      93.819752      91.292159      111.90361      15018.211      2383.1316      21305.034      1329.2052     -1056.9531     -2404.4243    
        32   39.483781     -4551.6391     -4539.9874      13070.537      981.89219      10.905291      12.127502      8.0302813      93.819752      91.292159      111.90361      15257.571      2614.0988      21339.941      1257.0669     -1030.1113     -2408.7603    
        33   41.380176     -4552.1798     -4539.9685      13238.941      981.89219      10.905291      12.127502      8.0302813      93.819752      91.292159      111.90361      15500.896      2842.5442      21373.384      1183.0346     -1002.9114     -2410.7238    
        34   43.272471     -4552.7058     -4539.9361      13415.229      981.89219      10.905291      12.127502      8.0302813      93.819752      91.292159      111.90361      15747.906      3086.9564      21410.823      1111.9892     -977.77826     -2422.5849    
        35   45.157356     -4553.2292     -4539.9032      13587.242      981.89219      10.905291      12.127502      8.0302813      93.819752      91.292159      111.90361      15995.279      3324.6297      21441.818      1035.9291     -949.1346      -2427.8637    
        36   47.031842     -4553.7488     -4539.8697      13760.444      981.89219      10.905291      12.127502      8.0302813      93.819752      91.292159      111.90361      16244.871      3564.4792      21471.983      958.80171     -920.17822     -2432.8099    
        37   48.892966     -4554.2648     -4539.8365      13935.352      981.89219      10.905291      12.127502      8.0302813      93.819752      91.292159      111.90361      16496.746      3807.7203      21501.591      880.84432     -890.41849     -2437.9648    
        38   50.737982     -4554.773      -4539.8002      14110.79       981.89219      10.905291      12.127502      8.0302813      93.819752      91.292159      111.90361      16750.449      4052.1873      21529.733      802.54823     -860.52765     -2442.8082    
        39   52.564348     -4555.2768     -4539.7651      14285.054      981.89219      10.905291      12.127502      8.0302813      93.819752      91.292159      111.90361      17003.565      4295.9365      21555.661      723.08935     -830.23224     -2447.4592    
        40   54.36975      -4555.773      -4539.7285      14459.264      981.89219      10.905291      12.127502      8.0302813      93.819752      91.292159      111.90361      17256.894      4540.6719      21580.226      643.27895     -799.83441     -2452.4622    
        41   56.152132     -4556.2613     -4539.6908      14632.388      981.89219      10.905291      12.127502      8.0302813      93.819752      91.292159      111.90361      17509.782      4785.0339      21602.349      562.63708     -769.46706     -2456.4857    
        42   57.909657     -4556.7436     -4539.6545      14802.506      981.89219      10.905291      12.127502      8.0302813      93.819752      91.292159      111.90361      17760.62       5026.885       21620.014      482.00004     -738.52358     -2460.7314    
        43   59.640734     -4557.2176     -4539.6176      14971.426      981.89219      10.905291      12.127502      8.0302813      93.819752      91.292159      111.90361      18010.408      5267.6694      21636.201      400.9768      -707.49089     -2464.3743    
        44   61.344028     -4557.6829     -4539.5803      15139.049      981.89219      10.905291      12.127502      8.0302813      93.819752      91.292159      111.90361      18258.491      5508.4006      21650.256      319.31198     -676.44913     -2467.697     
        45   63.018454     -4558.14       -4539.5432      15303.451      981.89219      10.905291      12.127502      8.0302813      93.819752      91.292159      111.90361      18503.893      5745.3274      21661.132      238.21013     -645.76673     -2470.6155    
        46   64.663184     -4558.5875     -4539.5053      15463.289      981.89219      10.905291      12.127502      8.0302813      93.819752      91.292159      111.90361      18745.028      5977.8084      21667.032      157.63302     -615.03737     -2473.1106    
        47   66.277595     -4559.0367     -4539.4782      15616.455      981.89219      10.905291      12.127502      8.0302813      93.819752      91.292159      111.90361      18981.622      6203.3489      21664.393      78.052926     -585.34135     -2471.6151    
        48   67.861316     -4559.4624     -4539.4366      15769.287      981.89219      10.905291      12.127502      8.0302813      93.819752      91.292159      111.90361      19215.933      6427.8052      21664.123     -2.3271035     -555.91452     -2472.2136    
        49   69.414141     -4559.8993     -4539.4152      15913.227      981.89219      10.905291      12.127502      8.0302813      93.819752      91.292159      111.90361      19443.622      6638.8228      21657.238     -80.632123     -526.12241     -2476.756     
        50   70.936102     -4560.3094     -4539.3762      16054.975      981.89219      10.905291      12.127502      8.0302813      93.819752      91.292159      111.90361      19665.56       6852.0638      21647.302     -158.98873     -496.92225     -2476.1215    
        51   72.427513     -4560.7063     -4539.3329      16191.371      981.89219      10.905291      12.127502      8.0302813      93.819752      91.292159      111.90361      19881.032      7059.8346      21633.246     -236.98349     -469.02084     -2473.0308    
        52   73.888771     -4561.0981     -4539.2935      16320.64       981.89219      10.905291      12.127502      8.0302813      93.819752      91.292159      111.90361      20089.126      7259.0486      21613.744     -313.19369     -440.95333     -2470.1907    
        53   75.320234     -4561.4761     -4539.2491      16439.138      981.89219      10.905291      12.127502      8.0302813      93.819752      91.292159      111.90361      20274.67       7452.5228      21590.222     -386.18978     -420.20904     -2464.0422    
        54   76.722502     -4561.85       -4539.2092      16552.63       981.89219      10.905291      12.127502      8.0302813      93.819752      91.292159      111.90361      20464.861      7633.5624      21559.466     -463.49821     -396.29619     -2461.205     
        55   78.096513     -4562.2237     -4539.1774      16659.833      981.89219      10.905291      12.127502      8.0302813      93.819752      91.292159      111.90361      20646.614      7808.359       21524.527     -537.23552     -371.79081     -2454.4086    
        56   79.443162     -4562.5809     -4539.1372      16761.194      981.89219      10.905291      12.127502      8.0302813      93.819752      91.292159      111.90361      20822.582      7975.7573      21485.244     -607.85371     -347.31416     -2445.8858    
        57   80.763303     -4562.9302     -4539.0969      16854.062      981.89219      10.905291      12.127502      8.0302813      93.819752      91.292159      111.90361      20989.089      8133.4819      21439.617     -676.66638     -323.80481     -2436.103     
        58   82.057832     -4563.2725     -4539.0572      16938.075      981.89219      10.905291      12.127502      8.0302813      93.819752      91.292159      111.90361      21144.976      8281.107       21388.141     -743.74622     -301.70073     -2424.5565    
        59   83.327638     -4563.6079     -4539.0179      17013.829      981.89219      10.905291      12.127502      8.0302813      93.819752      91.292159      111.90361      21290.712      8418.6469      21332.13      -809.78901     -280.78457     -2412.7736    
        60   84.573509     -4563.9361     -4538.9785      17082.463      981.89219      10.905291      12.127502      8.0302813      93.819752      91.292159      111.90361      21427.808      8548.3426      21271.239     -872.07768     -259.61405     -2396.6666    
        61   85.796248     -4564.2562     -4538.9378      17140.805      981.89219      10.905291      12.127502      8.0302813      93.819752      91.292159      111.90361      21552.87       8665.8931      21203.653     -932.51372     -240.84245     -2379.2728    
        62   86.996638     -4564.5697     -4538.897       17189.763      981.89219      10.905291      12.127502      8.0302813      93.819752      91.292159      111.90361      21666.497      8772.6144      21130.176     -990.39927     -223.37316     -2359.7691    
        63   88.175297     -4564.8768     -4538.8563      17228.783      981.89219      10.905291      12.127502      8.0302813      93.819752      91.292159      111.90361      21768.059      8867.3443      21050.944     -1045.9017     -207.13407     -2338.1019    
        64   89.332725     -4565.1776     -4538.8155      17258.02       981.89219      10.905291      12.127502      8.0302813      93.819752      91.292159      111.90361      21857.541      8950.777       20965.741     -1098.7533     -192.25952     -2314.4425    
        65   90.469281     -4565.4743     -4538.7768      17278.11       981.89219      10.905291      12.127502      8.0302813      93.819752      91.292159      111.90361      21934.662      9023.75        20875.918     -1149.3748     -177.94604     -2288.2139    
        66   91.585196     -4565.7627     -4538.7358      17289.275      981.89219      10.905291      12.127502      8.0302813      93.819752      91.292159      111.90361      22000.624      9086.2103      20780.99      -1196.3431     -165.49572     -2259.8195    
        67   92.68055      -4566.0459     -4538.6959      17290.412      981.89219      10.905291      12.127502      8.0302813      93.819752      91.292159      111.90361      22053.722      9136.6546      20680.858     -1240.5089     -154.59992     -2229.1348    
        68   93.755256     -4566.3223     -4538.6551      17281.65       981.89219      10.905291      12.127502      8.0302813      93.819752      91.292159      111.90361      22094.19       9175.4094      20575.351     -1281.3123     -144.80785     -2196.1469    
        69   94.809066     -4566.5925     -4538.6143      17264.12       981.89219      10.905291      12.127502      8.0302813      93.819752      91.292159      111.90361      22122.44       9204.1126      20465.807     -1319.0187     -136.18697     -2161.1307    
        70   95.841573     -4566.8565     -4538.5736      17236.729      981.89219      10.905291      12.127502      8.0302813      93.819752      91.292159      111.90361      22137.585      9221.1462      20351.455     -1353.3636     -128.61489     -2123.6831    
        71   96.852221     -4567.114      -4538.5329      17200.754      981.89219      10.905291      12.127502      8.0302813      93.819752      91.292159      111.90361      22140.649      9227.976       20233.636     -1384.218      -121.9762      -2083.5682    
        72   97.840312     -4567.3649     -4538.4922      17156.197      981.89219      10.905291      12.127502      8.0302813      93.819752      91.292159      111.90361      22131.575      9224.9714      20112.046     -1411.4438     -116.42084     -2041.4208    
        73   98.805019     -4567.6089     -4538.4515      17103.719      981.89219      10.905291      12.127502      8.0302813      93.819752      91.292159      111.90361      22110.744      9212.7729      19987.639     -1435.0415     -111.77669     -1997.3018    
        74   99.745398     -4567.8458     -4538.4109      17042.588      981.89219      10.905291      12.127502      8.0302813      93.819752      91.292159      111.90361      22077.274      9190.3804      19860.109     -1454.9832     -108.01272     -1950.7141    
        75   100.6604      -4568.0753     -4538.3704      16973.214      981.89219      10.905291      12.127502      8.0302813      93.819752      91.292159      111.90361      22031.511      9158.1179      19730.012     -1471.2706     -105.03442     -1902.0962    
        76   101.54886     -4568.3067     -4538.3396      16893.707      981.89219      10.905291      12.127502      8.0302813      93.819752      91.292159      111.90361      21971.114      9112.817       19597.192     -1487.0904     -101.67782     -1850.8626    
        77   102.40962     -4568.5167     -4538.2956      16810.402      981.89219      10.905291      12.127502      8.0302813      93.819752      91.292159      111.90361      21903.791      9064.0559      19463.358     -1496.2932     -98.595811     -1798.8302    
        78   103.24152     -4568.7089     -4538.2423      16723.344      981.89219      10.905291      12.127502      8.0302813      93.819752      91.292159      111.90361      21827.765      9012.2364      19330.03      -1497.0328     -98.663421     -1746.3306    
        79   104.04332     -4568.9053     -4538.2021      16626.999      981.89219      10.905291      12.127502      8.0302813      93.819752      91.292159      111.90361      21737.726      8948.3461      19194.925     -1497.5931     -97.013569     -1690.0946    
        80   104.81383     -4569.0926     -4538.162       16524.46       981.89219      10.905291      12.127502      8.0302813      93.819752      91.292159      111.90361      21637.129      8877.4716      19058.781     -1494.0982     -95.479135     -1632.6344    
        81   105.55192     -4569.2704     -4538.1221      16416.866      981.89219      10.905291      12.127502      8.0302813      93.819752      91.292159      111.90361      21526.771      8800.8347      18922.992     -1486.547      -93.922008     -1573.7335    
        82   106.25649     -4569.4382     -4538.0819      16304.47       981.89219      10.905291      12.127502      8.0302813      93.819752      91.292159      111.90361      21406.917      8718.4109      18788.083     -1474.8152     -92.106981     -1513.197     
        83   106.92654     -4569.5962     -4538.0422      16187.714      981.89219      10.905291      12.127502      8.0302813      93.819752      91.292159      111.90361      21278.258      8630.4386      18654.446     -1459.1195     -89.714444     -1451.4715    
        84   107.56118     -4569.7432     -4538.0019      16067.34       981.89219      10.905291      12.127502      8.0302813      93.819752      91.292159      111.90361      21141.439      8538.5282      18522.052     -1439.0267     -86.69318      -1388.8125    
        85   108.1596      -4569.8935     -4537.9755      15941.9        981.89219      10.905291      12.127502      8.0302813      93.819752      91.292159      111.90361      20996.683      8441.3515      18387.666     -1416.5107     -80.910377     -1321.823     
        86   108.72115     -4570.0186     -4537.9349      15817.105      981.89219      10.905291      12.127502      8.0302813      93.819752      91.292159      111.90361      20845.98       8343.5451      18261.79      -1388.327      -76.710949     -1257.1948    
        87   109.24535     -4570.1347     -4537.8964      15692.574      981.89219      10.905291      12.127502      8.0302813      93.819752      91.292159      111.90361      20688.977      8243.0606      18145.685     -1356.2469     -72.50316      -1193.9664    
        88   109.73186     -4570.2174     -4537.8355      15567.208      981.89219      10.905291      12.127502      8.0302813      93.819752      91.292159      111.90361      20533.834      8139.683       18028.109     -1320.0823     -60.381516     -1128.8855    
        89   110.18055     -4570.3134     -4537.7991      15436.748      981.89219      10.905291      12.127502      8.0302813      93.819752      91.292159      111.90361      20364.229      8035.5714      17910.445     -1279.1042     -51.989068     -1063.2504    
        90   110.59134     -4570.3746     -4537.7391      15311.654      981.89219      10.905291      12.127502      8.0302813      93.819752      91.292159      111.90361      20193.435      7932.0899      17809.437     -1235.7215     -42.564717     -1001.185     
        91   110.96445     -4570.4456     -4537.7         15178.941      981.89219      10.905291      12.127502      8.0302813      93.819752      91.292159      111.90361      20016.496      7825.9195      17694.408     -1186.9765     -28.446063     -936.96071    
        92   111.30038     -4570.5058     -4537.6611      15049.523      981.89219      10.905291      12.127502      8.0302813      93.819752      91.292159      111.90361      19839.471      7719.8654      17589.231     -1135.7427     -16.554606     -871.15813    
        93   111.5997      -4570.5553     -4537.6222      14921.335      981.89219      10.905291      12.127502      8.0302813      93.819752      91.292159      111.90361      19661.076      7614.1625      17488.767     -1080.9905     -3.0193888     -805.4392     
        94   111.86288     -4570.5782     -4537.5675      14792.551      981.89219      10.905291      12.127502      8.0302813      93.819752      91.292159      111.90361      19484.376      7504.4245      17388.854     -1023.0327      14.579507     -734.79346    
        95   112.09078     -4570.6104     -4537.5324      14667.137      981.89219      10.905291      12.127502      8.0302813      93.819752      91.292159      111.90361      19304.263      7400.1379      17297.009     -962.44916      32.017495     -669.62157    
        96   112.28461     -4570.6377     -4537.5024      14542.762      981.89219      10.905291      12.127502      8.0302813      93.819752      91.292159      111.90361      19125.866      7296.941       17205.478     -897.13726      48.917504     -603.75053    
        97   112.44543     -4570.6466     -4537.4639      14423.819      981.89219      10.905291      12.127502      8.0302813      93.819752      91.292159      111.90361      18952.625      7196.4773      17122.355     -830.09661      70.104372     -539.70485    
        98   112.57443     -4570.6576     -4537.4368      14303.262      981.89219      10.905291      12.127502      8.0302813      93.819752      91.292159      111.90361      18780.289      7089.2431      17040.255     -763.69321      92.415504     -474.52698    
        99   112.67287     -4570.6482     -4537.3984      14191.065      981.89219      10.905291      12.127502      8.0302813      93.819752      91.292159      111.90361      18616.4        6992.346       16964.45      -691.93764      117.94387     -411.42145    
       100   112.74175     -4570.6303     -4537.3602      14090.47       981.89219      10.905291      12.127502      8.0302813      93.819752      91.292159      111.90361      18466.791      6899.212       16905.407     -623.17127      157.01827     -355.54888    
       101   112.78236     -4570.5929     -4537.3108      13979.585      981.89219      10.905291      12.127502      8.0302813      93.819752      91.292159      111.90361      18299.027      6804.6553      16835.071     -545.83731      186.75233     -294.21149    
       102   112.79592     -4570.5588     -4537.2727      13866.776      981.89219      10.905291      12.127502      8.0302813      93.819752      91.292159      111.90361      18157.577      6698.8437      16743.908     -472.44756      215.51919     -251.13498    
       103   112.78378     -4570.5408     -4537.2583      13765.826      981.89219      10.905291      12.127502      8.0302813      93.819752      91.292159      111.90361      18022.902      6606.8882      16667.687     -395.33336      255.47499     -192.94997    
       104   112.74773     -4570.4976     -4537.2257      13673.242      981.89219      10.905291      12.127502      8.0302813      93.819752      91.292159      111.90361      17904.139      6514.8732      16600.714     -318.53137      293.05307     -133.29412    
       105   112.68905     -4570.4424     -4537.1878      13586.448      981.89219      10.905291      12.127502      8.0302813      93.819752      91.292159      111.90361      17798.884      6427.0743      16533.387     -241.06285      332.75988     -74.200701    
       106   112.60883     -4570.381      -4537.1501      13503.296      981.89219      10.905291      12.127502      8.0302813      93.819752      91.292159      111.90361      17707.308      6339.157       16463.422     -164.25347      374.92984     -15.722907    
       107   112.50802     -4570.3131     -4537.112       13429.47       981.89219      10.905291      12.127502      8.0302813      93.819752      91.292159      111.90361      17644.677      6250.9907      16392.744     -90.293065      426.0237       41.192293    
       108   112.38716     -4570.236      -4537.0706      13363.371      981.89219      10.905291      12.127502      8.0302813      93.819752      91.292159      111.90361      17609.955      6163.9651      16316.194     -15.824184      476.09196      98.887551    
       109   112.24708     -4570.1622     -4537.0381      13292.374      981.89219      10.905291      12.127502      8.0302813      93.819752      91.292159      111.90361      17569.461      6074.9609      16232.701      56.559015      526.09566      157.45935    
       110   112.08867     -4570.0772     -4536.9998      13226.778      981.89219      10.905291      12.127502      8.0302813      93.819752      91.292159      111.90361      17548.273      5988.1138      16143.946      127.13446      577.901        214.45905    
       111   111.91236     -4569.9881     -4536.9628      13162.958      981.89219      10.905291      12.127502      8.0302813      93.819752      91.292159      111.90361      17545.387      5897.8445      16045.642      194.24706      632.312        271.04061    
       112   111.7184      -4569.894      -4536.9259      13101.643      981.89219      10.905291      12.127502      8.0302813      93.819752      91.292159      111.90361      17562.069      5805.7415      15937.119      258.08675      689.21663      327.46604    
       113   111.50692     -4569.7948     -4536.8891      13044.359      981.89219      10.905291      12.127502      8.0302813      93.819752      91.292159      111.90361      17600.22       5714.1072      15818.751      318.31876      748.38121      384.08103    
       114   111.27789     -4569.6925     -4536.8544      12989.267      981.89219      10.905291      12.127502      8.0302813      93.819752      91.292159      111.90361      17659.25       5619.6374      15688.915      374.34791      810.29717      441.43071    
       115   111.03117     -4569.5834     -4536.818       12936.499      981.89219      10.905291      12.127502      8.0302813      93.819752      91.292159      111.90361      17738.649      5525.5443      15545.303      425.71436      874.35447      498.73599    
       116   110.76655     -4569.4526     -4536.7653      12888.78       981.89219      10.905291      12.127502      8.0302813      93.819752      91.292159      111.90361      17838.198      5438.8467      15389.294      471.36483      940.39416      560.81487    
       117   110.48374     -4569.3332     -4536.7294      12838.97       981.89219      10.905291      12.127502      8.0302813      93.819752      91.292159      111.90361      17957.162      5344.0841      15215.665      512.62602      1009.0661      619.35163    
       118   110.1825      -4569.2087     -4536.6938      12790.119      981.89219      10.905291      12.127502      8.0302813      93.819752      91.292159      111.90361      18094.554      5250.2724      15025.533      548.74157      1080.1324      678.70938    
       119   109.8626      -4569.0709     -4536.6504      12744.085      981.89219      10.905291      12.127502      8.0302813      93.819752      91.292159      111.90361      18250.877      5162.3631      14819.016      577.20874      1152.4134      740.50638    
       120   109.52389     -4568.9335     -4536.613       12697.485      981.89219      10.905291      12.127502      8.0302813      93.819752      91.292159      111.90361      18422.818      5074.5249      14595.112      603.45838      1227.6756      802.35027    
       121   109.16632     -4568.7932     -4536.5782      12651.154      981.89219      10.905291      12.127502      8.0302813      93.819752      91.292159      111.90361      18607.701      4991.7007      14354.062      623.18195      1304.9465      865.76739    
       122   108.79        -4568.6478     -4536.5438      12605.31       981.89219      10.905291      12.127502      8.0302813      93.819752      91.292159      111.90361      18804.8        4915.712       14095.417      637.64927      1384.09        931.02451    
       123   108.39527     -4568.4973     -4536.5098      12559.509      981.89219      10.905291      12.127502      8.0302813      93.819752      91.292159      111.90361      19011.533      4848.2425      13818.752      646.87993      1465.2322      998.25799    
       124   107.98262     -4568.3468     -4536.4811      12505.377      981.89219      10.905291      12.127502      8.0302813      93.819752      91.292159      111.90361      19213.959      4787.2816      13514.891      655.94144      1539.5607      1069.827     
       125   107.55287     -4568.1869     -4536.448       12459.585      981.89219      10.905291      12.127502      8.0302813      93.819752      91.292159      111.90361      19432.959      4742.3071      13203.489      655.32289      1624.2801      1141.5015    
       126   107.10709     -4568.0227     -4536.4154      12414.41       981.89219      10.905291      12.127502      8.0302813      93.819752      91.292159      111.90361      19655.193      4712.4058      12875.632      650.2806       1710.3552      1215.8208    
       127   106.64659     -4567.8546     -4536.3832      12370.144      981.89219      10.905291      12.127502      8.0302813      93.819752      91.292159      111.90361      19878.441      4700.0736      12531.916      641.18369      1797.5501      1293.0177    
       128   106.17291     -4567.6832     -4536.3516      12325.844      981.89219      10.905291      12.127502      8.0302813      93.819752      91.292159      111.90361      20099.528      4705.7847      12172.221      628.32056      1885.9006      1372.9373    
       129   105.68782     -4567.5091     -4536.3206      12282.07       981.89219      10.905291      12.127502      8.0302813      93.819752      91.292159      111.90361      20317.019      4731.3832      11797.806      612.12013      1975.5487      1455.9912    
       130   105.19329     -4567.3327     -4536.2901      12239.312      981.89219      10.905291      12.127502      8.0302813      93.819752      91.292159      111.90361      20529.555      4779.0217      11409.358      593.06013      2066.1621      1542.0636    
       131   104.69147     -4567.1573     -4536.2628      12197.185      981.89219      10.905291      12.127502      8.0302813      93.819752      91.292159      111.90361      20735.231      4848.736       11007.588      571.52903      2157.3396      1631.555     
       132   104.18465     -4566.9787     -4536.2338      12157.18       981.89219      10.905291      12.127502      8.0302813      93.819752      91.292159      111.90361      20933.451      4944.0124      10594.078      548.05077      2248.9565      1723.5599    
       133   103.67522     -4566.7998     -4536.2052      12118.819      981.89219      10.905291      12.127502      8.0302813      93.819752      91.292159      111.90361      21123.285      5063.6786      10169.493      523.11085      2341.2441      1818.4154    
       134   103.16567     -4566.6216     -4536.1774      12081.874      981.89219      10.905291      12.127502      8.0302813      93.819752      91.292159      111.90361      21303.68       5207.5047      9734.4368      497.31804      2433.8649      1915.5215    
       135   102.65855     -4566.4449     -4536.1504      12046.816      981.89219      10.905291      12.127502      8.0302813      93.819752      91.292159      111.90361      21474.394      5375.3575      9290.6973      471.0124       2526.5056      2014.8369    
       136   102.15643     -4566.2706     -4536.1242      12013.477      981.89219      10.905291      12.127502      8.0302813      93.819752      91.292159      111.90361      21635.575      5565.8958      8838.9605      444.88672      2619.1102      2115.7145    
       137   101.66194     -4566.0991     -4536.0987      11983.583      981.89219      10.905291      12.127502      8.0302813      93.819752      91.292159      111.90361      21788.822      5779.2166      8382.7102      419.42371      2711.7194      2217.9219    
       138   101.17771     -4565.9315     -4536.0739      11956.247      981.89219      10.905291      12.127502      8.0302813      93.819752      91.292159      111.90361      21933.769      6013.3148      7921.6561      395.41786      2803.9981      2320.4794    
       139   100.70641     -4565.7693     -4536.0508      11931.32       981.89219      10.905291      12.127502      8.0302813      93.819752      91.292159      111.90361      22070.487      6265.4077      7458.0647      373.09658      2895.8429      2422.6681    
       140   100.25067     -4565.617      -4536.0331      11908.494      981.89219      10.905291      12.127502      8.0302813      93.819752      91.292159      111.90361      22198.298      6533.9517      6993.2332      353.41298      2987.2801      2524.5701    
       141   99.813179     -4565.4659     -4536.011       11891.021      981.89219      10.905291      12.127502      8.0302813      93.819752      91.292159      111.90361      22322.622      6817.8962      6532.5462      336.96492      3077.4101      2624.302     
       142   99.396227     -4565.3215     -4535.9897      11870.118      981.89219      10.905291      12.127502      8.0302813      93.819752      91.292159      111.90361      22434.842      7117.6192      6057.8924      331.27468      3182.5079      2718.8299    
       143   99.002456     -4565.1697     -4535.9541      11864.593      981.89219      10.905291      12.127502      8.0302813      93.819752      91.292159      111.90361      22558.717      7424.4491      5610.6119      324.21267      3267.286       2812.0934    
       144   98.634873     -4565.0456     -4535.9385      11858.754      981.89219      10.905291      12.127502      8.0302813      93.819752      91.292159      111.90361      22668.023      7737.4262      5170.8112      321.91717      3352.9105      2901.691     
       145   98.296078     -4564.9275     -4535.9203      11859.235      981.89219      10.905291      12.127502      8.0302813      93.819752      91.292159      111.90361      22776.04       8056.869       4744.7961      324.53713      3437.312       2985.9154    
       146   97.988575     -4564.8195     -4535.903       11865.944      981.89219      10.905291      12.127502      8.0302813      93.819752      91.292159      111.90361      22882.28       8380.7337      4334.8173      333.45438      3519.8073      3064.1719    
       147   97.714652     -4564.7278     -4535.8922      11873.474      981.89219      10.905291      12.127502      8.0302813      93.819752      91.292159      111.90361      22974.155      8705.9471      3940.3204      351.089        3600.5045      3134.4274    
       148   97.47657      -4564.6424     -4535.8771      11892.341      981.89219      10.905291      12.127502      8.0302813      93.819752      91.292159      111.90361      23075.656      9031.262       3570.1033      373.72589      3678.6307      3198.8412    
       149   97.276461     -4564.5692     -4535.8629      11924.071      981.89219      10.905291      12.127502      8.0302813      93.819752      91.292159      111.90361      23183.739      9357.1881      3231.2865      400.48535      3761.8029      3252.9368    
       150   97.116031     -4564.4811     -4535.8221      11956.551      981.89219      10.905291      12.127502      8.0302813      93.819752      91.292159      111.90361      23288.789      9668.0636      2912.8009      446.79387      3836.6875      3302.0256    
       151   96.996798     -4564.4058     -4535.782       12003.45       981.89219      10.905291      12.127502      8.0302813      93.819752      91.292159      111.90361      23384.959      9987.4881      2637.904       492.31868      3912.7443      3341.3921    
       152   96.919968     -4564.3727     -4535.7716      12057.239      981.89219      10.905291      12.127502      8.0302813      93.819752      91.292159      111.90361      23477.963      10310.945      2382.8081      551.15235      3976.0186      3366.7733    
       153   96.886468     -4564.3428     -4535.7516      12116.068      981.89219      10.905291      12.127502      8.0302813      93.819752      91.292159      111.90361      23565.248      10626.065      2156.8927      614.17357      4039.4708      3388.0572    
       154   96.896809     -4564.3565     -4535.7622      12176.04       981.89219      10.905291      12.127502      8.0302813      93.819752      91.292159      111.90361      23645.143      10919.271      1963.7064      680.39226      4099.2851      3398.7748    
       155   96.951008     -4564.3728     -4535.7625      12245.994      981.89219      10.905291      12.127502      8.0302813      93.819752      91.292159      111.90361      23719.994      11212.532      1805.4566      760.61969      4157.3568      3400.9141    
       156   97.048702     -4564.392      -4535.7529      12326.062      981.89219      10.905291      12.127502      8.0302813      93.819752      91.292159      111.90361      23791.307      11501.754      1685.1264      846.35044      4211.6746      3394.6804    
       157   97.189007     -4564.4256     -4535.7451      12414.183      981.89219      10.905291      12.127502      8.0302813      93.819752      91.292159      111.90361      23857.69       11784.713      1600.1457      940.46894      4261.9158      3379.3506    
       158   97.37056      -4564.4744     -4535.7403      12505.918      981.89219      10.905291      12.127502      8.0302813      93.819752      91.292159      111.90361      23915.288      12052.668      1549.7971      1037.9011      4311.2862      3357.6305    
       159   97.591603     -4564.5359     -4535.7366      12607.318      981.89219      10.905291      12.127502      8.0302813      93.819752      91.292159      111.90361      23970.397      12314.639      1536.9173      1146.1423      4355.374       3324.1711    
       160   97.850009     -4564.6046     -4535.729       12715.836      981.89219      10.905291      12.127502      8.0302813      93.819752      91.292159      111.90361      24020.541      12568.177      1558.79        1262.0008      4396.2353      3281.4256    
       161   98.143214     -4564.6883     -4535.7262      12829.8        981.89219      10.905291      12.127502      8.0302813      93.819752      91.292159      111.90361      24066.629      12806.888      1615.8813      1383.5422      4433.9073      3229.9391    
       162   98.468259     -4564.7833     -4535.7253      12948.852      981.89219      10.905291      12.127502      8.0302813      93.819752      91.292159      111.90361      24108.718      13032.19       1705.6468      1511.3263      4469.2166      3169.7199    
       163   98.821875     -4564.8892     -4535.7269      13072.073      981.89219      10.905291      12.127502      8.0302813      93.819752      91.292159      111.90361      24147.433      13242.061      1826.7254      1644.3234      4501.8524      3100.303     
       164   99.200532     -4565.0021     -4535.728       13199.405      981.89219      10.905291      12.127502      8.0302813      93.819752      91.292159      111.90361      24183.649      13437.116      1977.4481      1782.661       4532.1047      3022.8088    
       165   99.600308     -4565.1214     -4535.7293      13338.223      981.89219      10.905291      12.127502      8.0302813      93.819752      91.292159      111.90361      24221.667      13634.311      2158.6903      1918.8029      4558.7349      2942.5936    
       166   100.01727     -4565.2474     -4535.7322      13471.751      981.89219      10.905291      12.127502      8.0302813      93.819752      91.292159      111.90361      24256.653      13794.826      2363.7743      2065.2897      4585.3437      2849.5232    
       167   100.44743     -4565.3925     -4535.7504      13602.915      981.89219      10.905291      12.127502      8.0302813      93.819752      91.292159      111.90361      24287.596      13930.642      2590.5063      2208.8505      4611.2278      2750.4639    
       168   100.88655     -4565.514      -4535.7424      13738.816      981.89219      10.905291      12.127502      8.0302813      93.819752      91.292159      111.90361      24324.422      14049.231      2842.7969      2364.1526      4631.9973      2642.5157    
       169   101.3305      -4565.6506     -4535.7479      13875.509      981.89219      10.905291      12.127502      8.0302813      93.819752      91.292159      111.90361      24362.097      14152.92       3111.5096      2518.7538      4654.8508      2528.063     
       170   101.77523     -4565.7883     -4535.7544      14010.994      981.89219      10.905291      12.127502      8.0302813      93.819752      91.292159      111.90361      24400.675      14236.03       3396.2767      2674.746       4677.1104      2407.4273    
       171   102.21665     -4565.9275     -4535.7633      14143.993      981.89219      10.905291      12.127502      8.0302813      93.819752      91.292159      111.90361      24439.301      14298.919      3693.7574      2831.2965      4698.7634      2280.8112    
       172   102.65077     -4566.0645     -4535.7723      14275.611      981.89219      10.905291      12.127502      8.0302813      93.819752      91.292159      111.90361      24480.664      14342.6        4003.5672      2987.6811      4720.4949      2149.2999    
       173   103.07375     -4566.1888     -4535.7717      14407.471      981.89219      10.905291      12.127502      8.0302813      93.819752      91.292159      111.90361      24526.264      14372.404      4323.7468      3146.6144      4741.9795      2013.1644    
       174   103.48197     -4566.3196     -4535.782       14532.637      981.89219      10.905291      12.127502      8.0302813      93.819752      91.292159      111.90361      24567.95       14380.067      4649.8931      3301.1615      4764.2617      1874.1814    
       175   103.87213     -4566.4499     -4535.7972      14651.825      981.89219      10.905291      12.127502      8.0302813      93.819752      91.292159      111.90361      24609.003      14365.472      4980.9999      3452.2121      4789.1729      1732.8629    
       176   104.24112     -4566.5658     -4535.8042      14768.475      981.89219      10.905291      12.127502      8.0302813      93.819752      91.292159      111.90361      24649.007      14341.238      5315.1813      3602.6611      4813.0263      1588.755     
       177   104.58613     -4566.6815     -4535.8181      14878.11       981.89219      10.905291      12.127502      8.0302813      93.819752      91.292159      111.90361      24682.825      14302.209      5649.2963      3748.5649      4837.7437      1442.7212    
       178   104.90471     -4566.788      -4535.8306      14981.713      981.89219      10.905291      12.127502      8.0302813      93.819752      91.292159      111.90361      24711.142      14251.187      5982.8092      3891.0679      4864.0428      1296.7044    
       179   105.19473     -4566.8866     -4535.8436      15079.306      981.89219      10.905291      12.127502      8.0302813      93.819752      91.292159      111.90361      24733.05       14189.988      6314.8785      4029.2688      4891.663       1150.8659    
       180   105.45441     -4566.9768     -4535.8572      15170.008      981.89219      10.905291      12.127502      8.0302813      93.819752      91.292159      111.90361      24746.693      14119.642      6643.6907      4162.7357      4920.4906      1005.9171    
       181   105.68232     -4567.0583     -4535.8714      15252.04       981.89219      10.905291      12.127502      8.0302813      93.819752      91.292159      111.90361      24749.409      14040.427      6966.2838      4291.0651      4950.7048      862.1882     
       182   105.87734     -4567.128      -4535.8836      15325.609      981.89219      10.905291      12.127502      8.0302813      93.819752      91.292159      111.90361      24740.38       13954.527      7281.9189      4413.1418      4982.1974      720.52781    
       183   106.03865     -4567.2084     -4535.9164      15387.003      981.89219      10.905291      12.127502      8.0302813      93.819752      91.292159      111.90361      24711.006      13862.245      7587.7569      4530.8285      5010.2085      581.1753     
       184   106.16564     -4567.2615     -4535.932       15436.955      981.89219      10.905291      12.127502      8.0302813      93.819752      91.292159      111.90361      24655.702      13765.396      7889.7667      4644.2641      5044.5651      444.39066    
       185   106.25825     -4567.3049     -4535.9481      15485.02       981.89219      10.905291      12.127502      8.0302813      93.819752      91.292159      111.90361      24607.163      13664.598      8183.2998      4749.5277      5079.5252      310.71673    
       186   106.31675     -4567.342      -4535.9679      15521.541      981.89219      10.905291      12.127502      8.0302813      93.819752      91.292159      111.90361      24541.781      13557.024      8465.8176      4848.2034      5115.7245      179.64056    
       187   106.34155     -4567.3664     -4535.9849      15548.822      981.89219      10.905291      12.127502      8.0302813      93.819752      91.292159      111.90361      24461.247      13446.18       8739.0375      4941.5451      5152.5785      52.212799    
       188   106.33332     -4567.3851     -4536.0061      15566.421      981.89219      10.905291      12.127502      8.0302813      93.819752      91.292159      111.90361      24365.882      13330.273      9003.1093      5028.4394      5189.7476     -72.564682    
       189   106.29288     -4567.3821     -4536.0151      15576.895      981.89219      10.905291      12.127502      8.0302813      93.819752      91.292159      111.90361      24255.215      13213.122      9262.3462      5110.2285      5227.8246     -191.20359    
       190   106.22128     -4567.3789     -4536.033       15573.949      981.89219      10.905291      12.127502      8.0302813      93.819752      91.292159      111.90361      24128.116      13088.609      9505.1218      5186.2661      5266.0727     -308.80864    
       191   106.11976     -4567.3723     -4536.0564      15574.156      981.89219      10.905291      12.127502      8.0302813      93.819752      91.292159      111.90361      23994.632      12989.466      9738.3686      5241.7246      5306.7355     -427.57124    
       192   105.98973     -4567.3522     -4536.0746      15550.931      981.89219      10.905291      12.127502      8.0302813      93.819752      91.292159      111.90361      23838.752      12853.58       9960.4604      5306.9337      5344.5588     -539.10901    
       193   105.83287     -4567.3244     -4536.0931      15516.865      981.89219      10.905291      12.127502      8.0302813      93.819752      91.292159      111.90361      23668.839      12710.036      10171.721      5367.2054      5382.0812     -647.91317    
       194   105.65086     -4567.2906     -4536.113       15473.071      981.89219      10.905291      12.127502      8.0302813      93.819752      91.292159      111.90361      23486.699      12559.121      10373.393      5422.605       5418.8825     -754.29088    
       195   105.44551     -4567.2485     -4536.1315      15419.249      981.89219      10.905291      12.127502      8.0302813      93.819752      91.292159      111.90361      23292.943      12400.003      10564.802      5473.6803      5454.9883     -857.96926    
       196   105.21832     -4567.1955     -4536.1455      15347.4        981.89219      10.905291      12.127502      8.0302813      93.819752      91.292159      111.90361      23079.156      12233.186      10729.857      5534.3306      5496.5504     -963.97715    
       197   104.97126     -4567.1411     -4536.1641      15272.549      981.89219      10.905291      12.127502      8.0302813      93.819752      91.292159      111.90361      22863.435      12053.745      10900.466      5577.0676      5530.4482     -1063.1927    
       198   104.70668     -4567.0843     -4536.1853      15185.941      981.89219      10.905291      12.127502      8.0302813      93.819752      91.292159      111.90361      22637.052      11861.216      11059.555      5615.478       5563.3141     -1159.5716    
       199   104.42645     -4567.0107     -4536.1944      15087.523      981.89219      10.905291      12.127502      8.0302813      93.819752      91.292159      111.90361      22406.551      11658.708      11197.31       5651.4915      5599.8162     -1255.0482    
       200   104.13229     -4566.9421     -4536.2126      14975.381      981.89219      10.905291      12.127502      8.0302813      93.819752      91.292159      111.90361      22142.965      11445.003      11338.175      5683.0719      5626.0297     -1348.8082    
       201   103.82641     -4566.8753     -4536.2362      14860.287      981.89219      10.905291      12.127502      8.0302813      93.819752      91.292159      111.90361      21893.149      11218.75       11468.961      5712.3812      5655.2632     -1440.5474    
       202   103.5111      -4566.8043     -4536.2581      14729.365      981.89219      10.905291      12.127502      8.0302813      93.819752      91.292159      111.90361      21632.093      10970.445      11585.557      5734.1774      5684.8771     -1525.0672    
       203   103.18842     -4566.7267     -4536.2757      14596.342      981.89219      10.905291      12.127502      8.0302813      93.819752      91.292159      111.90361      21370.752      10718.929      11699.344      5758.4862      5708.432      -1613.6672    
       204   102.8605      -4566.6472     -4536.2931      14454.208      981.89219      10.905291      12.127502      8.0302813      93.819752      91.292159      111.90361      21103.642      10454.99       11803.992      5780.5185      5729.816      -1700.5175    
       205   102.52915     -4566.5666     -4536.3102      14294.47       981.89219      10.905291      12.127502      8.0302813      93.819752      91.292159      111.90361      20827.447      10161.364      11894.601      5792.5411      5745.0278     -1794.5892    
       206   102.1963      -4566.4852     -4536.3271      14135.497      981.89219      10.905291      12.127502      8.0302813      93.819752      91.292159      111.90361      20550.746      9873.8015      11981.944      5810.5987      5761.881      -1877.7701    
       207   101.86395     -4566.4034     -4536.3433      13968.857      981.89219      10.905291      12.127502      8.0302813      93.819752      91.292159      111.90361      20269.985      9575.2096      12061.377      5826.6169      5776.2846     -1958.8399    
       208   101.53391     -4566.3235     -4536.3608      13793.835      981.89219      10.905291      12.127502      8.0302813      93.819752      91.292159      111.90361      19985.177      9264.8804      12131.447      5840.47        5787.4943     -2038.6377    
       209   101.20779     -4566.2429     -4536.3764      13602.066      981.89219      10.905291      12.127502      8.0302813      93.819752      91.292159      111.90361      19692.387      8921.5906      12192.219      5861.82        5798.6643     -2120.8997    
       210   100.88729     -4566.1633     -4536.3914      13413.552      981.89219      10.905291      12.127502      8.0302813      93.819752      91.292159      111.90361      19400.178      8593.1386      12247.339      5873.3807      5805.0693     -2195.1743    
       211   100.57415     -4566.0853     -4536.4059      13218.863      981.89219      10.905291      12.127502      8.0302813      93.819752      91.292159      111.90361      19105.473      8256.4943      12294.622      5883.544       5808.7574     -2266.8909    
       212   100.2699      -4566.0089     -4536.4192      13018.324      981.89219      10.905291      12.127502      8.0302813      93.819752      91.292159      111.90361      18808.472      7912.4437      12334.056      5892.3087      5809.968      -2335.9279    
       213   99.975687     -4565.9355     -4536.4327      12796.868      981.89219      10.905291      12.127502      8.0302813      93.819752      91.292159      111.90361      18507.68       7545.5813      12337.344      5897.9043      5811.2626     -2381.0001    
       214   99.692949     -4565.8657     -4536.4463      12585.944      981.89219      10.905291      12.127502      8.0302813      93.819752      91.292159      111.90361      18205.702      7190.5407      12361.589      5904.8045      5806.3418     -2444.8765    
       215   99.423363     -4565.7987     -4536.4589      12370.859      981.89219      10.905291      12.127502      8.0302813      93.819752      91.292159      111.90361      17902.717      6831.476       12378.385      5910.5233      5799.012      -2505.2191    
       216   99.168187     -4565.735      -4536.4704      12152.017      981.89219      10.905291      12.127502      8.0302813      93.819752      91.292159      111.90361      17598.3        6469.4585      12388.293      5915.3546      5788.7084     -2562.2588    
       217   98.928023     -4565.6744     -4536.4807      11920.175      981.89219      10.905291      12.127502      8.0302813      93.819752      91.292159      111.90361      17283.663      6102.6327      12374.228      5924.1257      5764.2048     -2609.9438    
       218   98.704039     -4565.6186     -4536.491       11694.94       981.89219      10.905291      12.127502      8.0302813      93.819752      91.292159      111.90361      16978.222      5737.8276      12368.772      5927.1042      5748.8351     -2660.4941    
       219   98.497915     -4565.5674     -4536.5007      11467.248      981.89219      10.905291      12.127502      8.0302813      93.819752      91.292159      111.90361      16672.8        5373.1199      12355.824      5929.1711      5730.5715     -2707.2656    
       220   98.31056      -4565.5106     -4536.4991      11239.799      981.89219      10.905291      12.127502      8.0302813      93.819752      91.292159      111.90361      16368.62       5014.2897      12336.487      5928.4409      5708.537      -2747.5422    
       221   98.142864     -4565.4672     -4536.5052      11008.495      981.89219      10.905291      12.127502      8.0302813      93.819752      91.292159      111.90361      16064.802      4653.5855      12307.097      5929.3506      5684.6645     -2787.1688    
       222   97.995648     -4565.4205     -4536.5019      10777.99       981.89219      10.905291      12.127502      8.0302813      93.819752      91.292159      111.90361      15767.881      4295.9876      12270.102      5928.3245      5658.7296     -2822.8964    
       223   97.869611     -4565.39       -4536.5087      10538.783      981.89219      10.905291      12.127502      8.0302813      93.819752      91.292159      111.90361      15467.979      3935.6298      12212.739      5927.6301      5628.2071     -2844.7361    
       224   97.765416     -4565.3699     -4536.5194      10305.437      981.89219      10.905291      12.127502      8.0302813      93.819752      91.292159      111.90361      15170.906      3587.3718      12158.032      5924.7197      5596.1087     -2873.1452    
       225   97.683611     -4565.3513     -4536.5249      10072.132      981.89219      10.905291      12.127502      8.0302813      93.819752      91.292159      111.90361      14876.295      3244.3867      12095.714      5920.881       5561.6324     -2896.779     
       226   97.62464      -4565.3386     -4536.5296      9839.9451      981.89219      10.905291      12.127502      8.0302813      93.819752      91.292159      111.90361      14586.023      2908.9403      12024.872      5915.5795      5524.7197     -2916.6864    
       227   97.588818     -4565.3216     -4536.5231      9610.9588      981.89219      10.905291      12.127502      8.0302813      93.819752      91.292159      111.90361      14302.125      2582.6867      11948.065      5910.0801      5484.1202     -2933.8877    
       228   97.576366     -4565.3204     -4536.5256      9381.8143      981.89219      10.905291      12.127502      8.0302813      93.819752      91.292159      111.90361      14022.71       2263.2376      11859.495      5901.9233      5442.6839     -2945.8011    
       229   97.587356     -4565.3268     -4536.5288      9148.8191      981.89219      10.905291      12.127502      8.0302813      93.819752      91.292159      111.90361      13734.692      1951.5824      11760.183      5889.4569      5396.3785     -2954.4747    
       230   97.621749     -4565.3388     -4536.5306      8922.9774      981.89219      10.905291      12.127502      8.0302813      93.819752      91.292159      111.90361      13467.467      1650.1822      11651.283      5877.619       5350.2895     -2958.7379    
       231   97.679218     -4565.3536     -4536.5284      8694.1685      981.89219      10.905291      12.127502      8.0302813      93.819752      91.292159      111.90361      13191.415      1358.9385      11532.152      5866.0975      5302.2854     -2959.3248    
       232   97.759443     -4565.3802     -4536.5313      8472.982       981.89219      10.905291      12.127502      8.0302813      93.819752      91.292159      111.90361      12940.926      1076.9535      11401.066      5848.5342      5251.6097     -2956.7849    
       233   97.861899     -4565.4102     -4536.5311      8247.9529      981.89219      10.905291      12.127502      8.0302813      93.819752      91.292159      111.90361      12698.798      799.45526      11245.606      5829.3732      5199.6301     -2959.0491    
       234   97.985952     -4565.4426     -4536.527       8033.3463      981.89219      10.905291      12.127502      8.0302813      93.819752      91.292159      111.90361      12468.598      541.02038      11090.42       5807.9891      5146.1913     -2947.9794    
       235   98.130844     -4565.4681     -4536.5097      7832.5899      981.89219      10.905291      12.127502      8.0302813      93.819752      91.292159      111.90361      12252.923      318.62512      10926.221      5778.6212      5086.8083     -2928.0664    
       236   98.295539     -4565.5144     -4536.5074      7623.6074      981.89219      10.905291      12.127502      8.0302813      93.819752      91.292159      111.90361      12042.656      84.384904      10743.781      5750.2996      5030.4286     -2908.8891    
       237   98.478766     -4565.5471     -4536.486       7415.0108      981.89219      10.905291      12.127502      8.0302813      93.819752      91.292159      111.90361      11846.812     -145.97359      10544.194      5732.3794      4974.3109     -2885.8251    
       238   98.679023     -4565.6028     -4536.4826      7211.5514      981.89219      10.905291      12.127502      8.0302813      93.819752      91.292159      111.90361      11660.545     -355.09935      10329.208      5696.1153      4915.8111     -2858.9287    
       239   98.894722     -4565.6624     -4536.4785      7011.0307      981.89219      10.905291      12.127502      8.0302813      93.819752      91.292159      111.90361      11487.638     -551.14185      10096.596      5655.4513      4856.5211     -2827.9421    
       240   99.123745     -4565.7254     -4536.4739      6806.8133      981.89219      10.905291      12.127502      8.0302813      93.819752      91.292159      111.90361      11320.445     -744.60717      9844.6025      5601.1814      4794.8532     -2794.4913    
       241   99.363816     -4565.7911     -4536.4688      6611.2152      981.89219      10.905291      12.127502      8.0302813      93.819752      91.292159      111.90361      11174.832     -913.5924       9572.4062      5551.3638      4734.0396     -2755.4734    
       242   99.612491     -4565.8612     -4536.4655      6416.3096      981.89219      10.905291      12.127502      8.0302813      93.819752      91.292159      111.90361      11042.088     -1070.6379      9277.4787      5495.4811      4672.9641     -2712.4103    
       243   99.866935     -4565.9303     -4536.4596      6223.4742      981.89219      10.905291      12.127502      8.0302813      93.819752      91.292159      111.90361      10924.206     -1213.2934      8959.5099      5434.7898      4611.464      -2664.9769    
       244   100.12406     -4565.9998     -4536.4532      6031.8227      981.89219      10.905291      12.127502      8.0302813      93.819752      91.292159      111.90361      10820.806     -1341.7988      8616.4611      5368.403       4549.8251     -2613.4164    
       245   100.38045     -4566.0514     -4536.4291      5844.7068      981.89219      10.905291      12.127502      8.0302813      93.819752      91.292159      111.90361      10739.744     -1456.3159      8250.692       5295.6098      4492.9746     -2557.7446    
       246   100.63249     -4566.113      -4536.4164      5667.8926      981.89219      10.905291      12.127502      8.0302813      93.819752      91.292159      111.90361      10674.146     -1552.982       7882.5139      5212.779       4418.6378     -2486.1734    
       247   100.87643     -4566.1741     -4536.4055      5484.1177      981.89219      10.905291      12.127502      8.0302813      93.819752      91.292159      111.90361      10611.037     -1631.4832      7472.7991      5126.4713      4356.2299     -2431.9221    
       248   101.10845     -4566.2349     -4536.3978      5291.571       981.89219      10.905291      12.127502      8.0302813      93.819752      91.292159      111.90361      10561.508     -1704.8367      7018.0417      5036.1768      4294.1609     -2363.3012    
       249   101.32449     -4566.2857     -4536.3849      5106.7408      981.89219      10.905291      12.127502      8.0302813      93.819752      91.292159      111.90361      10531.414     -1749.8487      6538.6568      4948.3134      4238.1009     -2283.8674    
       250   101.52038     -4566.3415     -4536.3828      4891.8749      981.89219      10.905291      12.127502      8.0302813      93.819752      91.292159      111.90361      10481.803     -1818.9116      6012.7334      4826.4482      4162.1113     -2221.3828    
       251   101.69249     -4566.384      -4536.3746      4693.6956      981.89219      10.905291      12.127502      8.0302813      93.819752      91.292159      111.90361      10467.147     -1853.27        5467.21        4719.7304      4100.4878     -2140.2218    
       252   101.83748     -4566.4203     -4536.3681      4492.2662      981.89219      10.905291      12.127502      8.0302813      93.819752      91.292159      111.90361      10461.761     -1876.3534      4891.3911      4607.6679      4038.1414     -2056.1424    
       253   101.95201     -4566.4509     -4536.3648      4287.0749      981.89219      10.905291      12.127502      8.0302813      93.819752      91.292159      111.90361      10464.132     -1888.6467      4285.7399      4490.5875      3974.8152     -1969.0236    
       254   102.03306     -4566.4909     -4536.3809      4073.3036      981.89219      10.905291      12.127502      8.0302813      93.819752      91.292159      111.90361      10465.596     -1895.3053      3649.6205      4376.37        3906.6915     -1874.9236    
       255   102.07824     -4566.477      -4536.3537      3866.0312      981.89219      10.905291      12.127502      8.0302813      93.819752      91.292159      111.90361      10486.095     -1888.6956      3000.694       4252.3626      3838.6592     -1779.1032    
       256   102.08597     -4566.4723     -4536.3467      3651.9142      981.89219      10.905291      12.127502      8.0302813      93.819752      91.292159      111.90361      10510.878     -1874.3852      2319.2495      4126.8114      3774.2103     -1683.1253    
       257   102.05526     -4566.4613     -4536.3448      3434.0577      981.89219      10.905291      12.127502      8.0302813      93.819752      91.292159      111.90361      10540.64      -1855.5799      1617.113       3999.5702      3707.6932     -1587.2293    
       258   101.98588     -4566.4266     -4536.3305      3214.2638      981.89219      10.905291      12.127502      8.0302813      93.819752      91.292159      111.90361      10574.642     -1832.2704      900.41957      3871.7253      3640.8995     -1489.4461    
       259   101.87856     -4566.3868     -4536.3224      2991.8785      981.89219      10.905291      12.127502      8.0302813      93.819752      91.292159      111.90361      10613.005     -1806.3218      168.95234      3744.6772      3571.4056     -1390.025     
       260   101.73489     -4566.3363     -4536.3143      2768.3682      981.89219      10.905291      12.127502      8.0302813      93.819752      91.292159      111.90361      10655.755     -1778.9299     -571.72062      3619.1893      3499.9046     -1290.5378    
       261   101.55741     -4566.2745     -4536.3049      2544.5544      981.89219      10.905291      12.127502      8.0302813      93.819752      91.292159      111.90361      10702.669     -1751.701      -1317.3053      3496.6169      3426.6244     -1191.4599    
       262   101.3495      -4566.2054     -4536.2971      2319.7891      981.89219      10.905291      12.127502      8.0302813      93.819752      91.292159      111.90361      10751.728     -1728.0423     -2064.3186      3376.827       3350.5623     -1093.2028    
       263   101.1154      -4566.1268     -4536.2876      2096.8751      981.89219      10.905291      12.127502      8.0302813      93.819752      91.292159      111.90361      10803.961     -1707.5163     -2805.8196      3261.1703      3272.128      -996.70579    
       264   100.85985     -4566.0246     -4536.2609      1884.5857      981.89219      10.905291      12.127502      8.0302813      93.819752      91.292159      111.90361      10861.315     -1674.6579     -3532.9001      3155.9598      3186.91       -912.17281    
       265   100.5885      -4565.9372     -4536.2536      1666.0484      981.89219      10.905291      12.127502      8.0302813      93.819752      91.292159      111.90361      10918.784     -1665.0903     -4255.5489      3051.2896      3102.8643     -819.35925    
       266   100.30776     -4565.8472     -4536.2464      1451.4615      981.89219      10.905291      12.127502      8.0302813      93.819752      91.292159      111.90361      10978.436     -1662.2922     -4961.7592      2953.0162      3015.9521     -728.80849    
       267   100.0241      -4565.7618     -4536.2447      1240.8844      981.89219      10.905291      12.127502      8.0302813      93.819752      91.292159      111.90361      11038.485     -1665.679      -5650.1531      2862.0527      2928.7634     -641.19433    
       268   99.744187     -4565.6683     -4536.2337      1033.0783      981.89219      10.905291      12.127502      8.0302813      93.819752      91.292159      111.90361      11101.443     -1690.6098     -6311.5985      2779.8425      2836.5079     -557.00768    
       269   99.474833     -4565.5821     -4536.2271      836.53725      981.89219      10.905291      12.127502      8.0302813      93.819752      91.292159      111.90361      11158.278     -1704.7771     -6943.8889      2699.4412      2734.8156     -470.22677    
       270   99.222979     -4565.5064     -4536.2257      648.07642      981.89219      10.905291      12.127502      8.0302813      93.819752      91.292159      111.90361      11220.133     -1723.4805     -7552.4229      2632.158       2635.7129     -392.68526    
       271   98.995532     -4565.4321     -4536.2185      473.81568      981.89219      10.905291      12.127502      8.0302813      93.819752      91.292159      111.90361      11283.541     -1736.8829     -8125.2115      2561.9813      2532.3249     -312.78284    
       272   98.798898     -4565.3676     -4536.212       295.86279      981.89219      10.905291      12.127502      8.0302813      93.819752      91.292159      111.90361      11340.35      -1780.1889     -8672.573       2504.8543      2426.3681     -247.32614    
       273   98.639048     -4565.3181     -4536.2097      130.20185      981.89219      10.905291      12.127502      8.0302813      93.819752      91.292159      111.90361      11392.245     -1824.3901     -9177.2491      2455.2872      2319.6958     -177.66817    
       274   98.521466     -4565.2771     -4536.2034     -25.409822      981.89219      10.905291      12.127502      8.0302813      93.819752      91.292159      111.90361      11438.57      -1870.827      -9643.9726      2413.157       2209.7831     -111.86086    
       275   98.450769     -4565.2361     -4536.1832     -167.34424      981.89219      10.905291      12.127502      8.0302813      93.819752      91.292159      111.90361      11475.64      -1917.0495     -10060.624      2376.7359      2095.1702     -51.775336    
       276   98.431052     -4565.2239     -4536.1769     -302.9652       981.89219      10.905291      12.127502      8.0302813      93.819752      91.292159      111.90361      11507.609     -1967.5209     -10448.983      2346.7722      1980.5441      7.4721814    
       277   98.465812     -4565.2279     -4536.1706     -435.42213      981.89219      10.905291      12.127502      8.0302813      93.819752      91.292159      111.90361      11527.168     -2035.9415     -10797.493      2328.9893      1865.0926      59.603989    
       278   98.557524     -4565.2464     -4536.1621     -543.15898      981.89219      10.905291      12.127502      8.0302813      93.819752      91.292159      111.90361      11543         -2073.639      -11098.837      2315.5922      1749.3496      120.16967    
       279   98.707786     -4565.3087     -4536.18       -651.73179      981.89219      10.905291      12.127502      8.0302813      93.819752      91.292159      111.90361      11539.885     -2129.2959     -11365.785      2304.7008      1632.5387      165.99741    
       280   98.917531     -4565.3642     -4536.1736     -744.56872      981.89219      10.905291      12.127502      8.0302813      93.819752      91.292159      111.90361      11531.206     -2178.5079     -11586.404      2293.4419      1508.8806      212.87715    
       281   99.186919     -4565.4327     -4536.1626     -827.77977      981.89219      10.905291      12.127502      8.0302813      93.819752      91.292159      111.90361      11507.378     -2226.4082     -11764.309      2285.1428      1382.6665      255.98312    
       282   99.515083     -4565.5262     -4536.1593     -899.82224      981.89219      10.905291      12.127502      8.0302813      93.819752      91.292159      111.90361      11473.588     -2274.4027     -11898.652      2280.759       1255.843       296.18446    
       283   99.900261     -4565.6292     -4536.1486     -958.9341       981.89219      10.905291      12.127502      8.0302813      93.819752      91.292159      111.90361      11431.322     -2319.3095     -11988.815      2279.4253      1126.5043      333.32711    
       284   100.33985     -4565.7524     -4536.1421     -1008.2374      981.89219      10.905291      12.127502      8.0302813      93.819752      91.292159      111.90361      11377.815     -2366.4883     -12036.039      2279.3464      995.49032      367.17196    
       285   100.83035     -4565.8908     -4536.1357     -1041.4788      981.89219      10.905291      12.127502      8.0302813      93.819752      91.292159      111.90361      11320.207     -2407.4884     -12037.156      2287.4956      859.02313      393.21366    
       286   101.36743     -4566.0426     -4536.1291     -1073.856       981.89219      10.905291      12.127502      8.0302813      93.819752      91.292159      111.90361      11235.192     -2456.9265     -11999.833      2286.6909      730.78435      422.42726    
       287   101.94603     -4566.2058     -4536.1215     -1098.9723      981.89219      10.905291      12.127502      8.0302813      93.819752      91.292159      111.90361      11148.725     -2524.1259     -11921.516      2279.2287      589.48677      438.70217    
       288   102.56069     -4566.3807     -4536.115      -1104.9813      981.89219      10.905291      12.127502      8.0302813      93.819752      91.292159      111.90361      11063.126     -2578.4051     -11799.664      2284.1265      453.22373      459.93214    
       289   103.20546     -4566.5702     -4536.1142     -1101.5283      981.89219      10.905291      12.127502      8.0302813      93.819752      91.292159      111.90361      10972.763     -2636.7183     -11640.629      2289.2888      315.59945      479.27021    
       290   103.8737      -4566.7609     -4536.1077     -1087.7639      981.89219      10.905291      12.127502      8.0302813      93.819752      91.292159      111.90361      10878.499     -2699.8994     -11441.891      2293.8688      178.26331      495.27603    
       291   104.5584      -4566.9591     -4536.1039     -1065.5502      981.89219      10.905291      12.127502      8.0302813      93.819752      91.292159      111.90361      10781.019     -2769.2147     -11208.455      2297.6038      40.607298      509.34991    
       292   105.25232     -4567.1574     -4536.0975     -1034.272       981.89219      10.905291      12.127502      8.0302813      93.819752      91.292159      111.90361      10680.813     -2842.3047     -10941.325      2300.0106     -97.51731       520.78904    
[...]
       931   122.53295     -4571.6663     -4535.5068      4737.598       981.89219      10.905291      12.127502      8.0302813      93.819752      91.292159      111.90361      2745.0723      4657.1699      6810.5517      1497.9409     -686.78611      1222.5864    
       932   122.8195      -4571.731      -4535.487       4687.6735      981.89219      10.905291      12.127502      8.0302813      93.819752      91.292159      111.90361      2941.3933      4394.2236      6727.4034      1424.4143     -690.1604       1272.5946    
       933   123.10688     -4571.7905     -4535.4616      4640.7983      981.89219      10.905291      12.127502      8.0302813      93.819752      91.292159      111.90361      3172.7835      4104.0024      6645.609       1352.0438     -693.81067      1315.6604    
       934   123.39329     -4571.829      -4535.4156      4602.2573      981.89219      10.905291      12.127502      8.0302813      93.819752      91.292159      111.90361      3440.4844      3794.2071      6572.0804      1282.149      -692.72311      1358.6956    
       935   123.67677     -4571.8754     -4535.3783      4567.2655      981.89219      10.905291      12.127502      8.0302813      93.819752      91.292159      111.90361      3746.4424      3462.8561      6492.4978      1211.1723     -691.79101      1394.0713    
       936   123.95526     -4571.9576     -4535.3784      4528.9595      981.89219      10.905291      12.127502      8.0302813      93.819752      91.292159      111.90361      4083.083       3095.3763      6408.4194      1140.2813     -690.98949      1418.419     
       937   124.22648     -4572.0171     -4535.3578      4497.3466      981.89219      10.905291      12.127502      8.0302813      93.819752      91.292159      111.90361      4466.3373      2704.6917      6321.0108      1073.8273     -685.39667      1438.2193    
       938   124.48787     -4572.0738     -4535.3374      4475.9544      981.89219      10.905291      12.127502      8.0302813      93.819752      91.292159      111.90361      4893.2245      2305.4375      6229.2012      1001.1375     -677.66851      1453.5529    
       939   124.73696     -4572.1272     -4535.3173      4452.5199      981.89219      10.905291      12.127502      8.0302813      93.819752      91.292159      111.90361      5356.3355      1867.5403      6133.6839      939.64065     -666.7361       1463.1587    
       940   124.97141     -4572.1758     -4535.2967      4433.3108      981.89219      10.905291      12.127502      8.0302813      93.819752      91.292159      111.90361      5859.1682      1407.3843      6033.3799      880.93089     -652.97562      1468.6999    
       941   125.18883     -4572.224      -4535.2808      4415.7257      981.89219      10.905291      12.127502      8.0302813      93.819752      91.292159      111.90361      6398.8446      921.80326      5926.529       824.60246     -637.23547      1469.4536    
       942   125.38702     -4572.2624     -4535.2607      4403.4361      981.89219      10.905291      12.127502      8.0302813      93.819752      91.292159      111.90361      6976.3343      419.90713      5814.067       772.21406     -618.5528       1466.8416    
       943   125.56396     -4572.2947     -4535.2407      4395.9377      981.89219      10.905291      12.127502      8.0302813      93.819752      91.292159      111.90361      7589.7219     -98.662859      5696.754       723.53089     -597.69269      1460.9223    
       944   125.71798     -4572.3204     -4535.221       4393.0672      981.89219      10.905291      12.127502      8.0302813      93.819752      91.292159      111.90361      8236.2571     -632.08619      5575.0307      678.49367     -574.75782      1452.3942    
       945   125.84773     -4572.3254     -4535.1878      4396.7897      981.89219      10.905291      12.127502      8.0302813      93.819752      91.292159      111.90361      8913.0797     -1174.8848      5452.1742      635.3946      -552.17015      1445.2591    
       946   125.95234     -4572.3351     -4535.1666      4402.6844      981.89219      10.905291      12.127502      8.0302813      93.819752      91.292159      111.90361      9616.4452     -1730.0368      5321.6448      597.82818     -526.32045      1432.748     
       947   126.03151     -4572.3478     -4535.1558      4411.7052      981.89219      10.905291      12.127502      8.0302813      93.819752      91.292159      111.90361      10342.046     -2291.815       5184.8843      563.05979     -502.51774      1417.1227    
       948   126.08528     -4572.3606     -4535.1528      4424.952       981.89219      10.905291      12.127502      8.0302813      93.819752      91.292159      111.90361      11088.643     -2858.0499      5044.2634      530.96496     -473.26929      1405.6011    
       949   126.11409     -4572.3513     -4535.135       4438.7407      981.89219      10.905291      12.127502      8.0302813      93.819752      91.292159      111.90361      11850.376     -3440.0524      4905.8987      510.98683     -445.67147      1385.1153    
       950   126.11909     -4572.331      -4535.1132      4468.4095      981.89219      10.905291      12.127502      8.0302813      93.819752      91.292159      111.90361      12629.167     -3996.3145      4772.3758      487.29001     -423.10507      1368.199     
       951   126.10208     -4572.3091     -4535.0963      4502.5273      981.89219      10.905291      12.127502      8.0302813      93.819752      91.292159      111.90361      13414.722     -4543.3835      4636.2438      465.96044     -399.74645      1352.3367    
       952   126.0652      -4572.2817     -4535.0799      4543.1082      981.89219      10.905291      12.127502      8.0302813      93.819752      91.292159      111.90361      14204.719     -5077.6895      4502.295       446.86186     -378.52857      1337.4488    
       953   126.01094     -4572.2523     -4535.0664      4588.1794      981.89219      10.905291      12.127502      8.0302813      93.819752      91.292159      111.90361      14993.419     -5597.2477      4368.3668      429.53414     -360.4546       1323.4574    
       954   125.94212     -4572.2166     -4535.051       4639.3978      981.89219      10.905291      12.127502      8.0302813      93.819752      91.292159      111.90361      15778.766     -6098.2039      4237.6316      413.2942      -344.98071      1310.4322    
       955   125.86172     -4572.1768     -4535.0349      4695.6088      981.89219      10.905291      12.127502      8.0302813      93.819752      91.292159      111.90361      16555.823     -6576.7107      4107.7141      393.00783     -332.46374      1300.0847    
       956   125.7728      -4572.1358     -4535.0202      4750.378       981.89219      10.905291      12.127502      8.0302813      93.819752      91.292159      111.90361      17321.664     -7045.6209      3975.0909      373.23541     -325.80432      1285.8033    
       957   125.67753     -4572.0866     -4534.9992      4770.115       981.89219      10.905291      12.127502      8.0302813      93.819752      91.292159      111.90361      18069.875     -7551.3834      3791.8532      345.09439     -327.09493      1249.0651    
       958   125.58281     -4572.0634     -4535.0039      5045.9523      981.89219      10.905291      12.127502      8.0302813      93.819752      91.292159      111.90361      18851.687     -7612.0787      3898.249       414.24873     -319.19184      1345.6848    
       959   125.49304     -4572.0221     -4534.9891      5148.6126      981.89219      10.905291      12.127502      8.0302813      93.819752      91.292159      111.90361      19572.632     -7941.5239      3814.7294      404.24294     -324.85449      1349.7528    
       960   125.40815     -4571.9912     -4534.9833      5257.2649      981.89219      10.905291      12.127502      8.0302813      93.819752      91.292159      111.90361      20272.114     -8234.3637      3734.0444      396.10903     -333.08907      1360.1384    
       961   125.33081     -4571.9562     -4534.971       5359.6646      981.89219      10.905291      12.127502      8.0302813      93.819752      91.292159      111.90361      20948.289     -8489.5551      3620.2596      389.26916     -354.10663      1393.4797    
       962   125.26345     -4571.9339     -4534.9687      5487.1763      981.89219      10.905291      12.127502      8.0302813      93.819752      91.292159      111.90361      21595.7       -8696.2436      3562.0729      378.15343     -373.0299       1414.0484    
       963   125.20809     -4571.8765     -4534.9276      5624.873       981.89219      10.905291      12.127502      8.0302813      93.819752      91.292159      111.90361      22220.11      -8856.3954      3510.9047      364.6926      -412.64505      1446.7341    
       964   125.16622     -4571.8755     -4534.9389      5767.5737      981.89219      10.905291      12.127502      8.0302813      93.819752      91.292159      111.90361      22807.819     -8974.1884      3469.0908      351.87698     -445.46888      1476.9088    
       965   125.13859     -4571.8494     -4534.921       5939.909       981.89219      10.905291      12.127502      8.0302813      93.819752      91.292159      111.90361      23402.012     -9043.2611      3460.9762      337.87297     -467.15381      1514.9703    
       966   125.12564     -4571.8351     -4534.9105      6093.3071      981.89219      10.905291      12.127502      8.0302813      93.819752      91.292159      111.90361      23902.573     -9069.8132      3447.1615      330.54487     -513.49228      1555.9795    
       967   125.12775     -4571.8017     -4534.8765      6276.2353      981.89219      10.905291      12.127502      8.0302813      93.819752      91.292159      111.90361      24421.639     -9040.6537      3447.7207      321.25406     -554.21585      1598.9163    
       968   125.14413     -4571.8011     -4534.871       6462.4084      981.89219      10.905291      12.127502      8.0302813      93.819752      91.292159      111.90361      24919.553     -8982.7909      3450.4631      295.02434     -597.12425      1635.127     
       969   125.17335     -4571.8114     -4534.8727      6671.126       981.89219      10.905291      12.127502      8.0302813      93.819752      91.292159      111.90361      25382.782     -8871.7273      3502.3229      270.60185     -665.0753       1691.8908    
       970   125.21412     -4571.8146     -4534.8639      6876.0735      981.89219      10.905291      12.127502      8.0302813      93.819752      91.292159      111.90361      25803.104     -8718.0614      3543.1773      247.72085     -717.73152      1747.0788    
       971   125.26461     -4571.8209     -4534.8553      7090.1837      981.89219      10.905291      12.127502      8.0302813      93.819752      91.292159      111.90361      26193.612     -8521.9147      3598.8536      223.08105     -773.46565      1805.7478    
       972   125.32178     -4571.8349     -4534.8524      7350.1728      981.89219      10.905291      12.127502      8.0302813      93.819752      91.292159      111.90361      26577.121     -8214.3151      3687.7129      197.81398     -852.83202      1865.9367    
       973   125.38274     -4571.8533     -4534.8529      7580.1618      981.89219      10.905291      12.127502      8.0302813      93.819752      91.292159      111.90361      26908.233     -7939.2576      3771.51        171.25237     -915.57121      1929.7599    
       974   125.44485     -4571.8646     -4534.8458      7817.8505      981.89219      10.905291      12.127502      8.0302813      93.819752      91.292159      111.90361      27213.502     -7628.3298      3868.3794      142.13644     -980.5888       1996.7474    
       975   125.50474     -4571.8789     -4534.8424      8057.1467      981.89219      10.905291      12.127502      8.0302813      93.819752      91.292159      111.90361      27485.945     -7288.9968      3974.4922      111.17859     -1051.2458      2066.316     
       976   125.55955     -4571.8965     -4534.8439      8323.1927      981.89219      10.905291      12.127502      8.0302813      93.819752      91.292159      111.90361      27766.606     -6899.3885      4102.3603      84.45217      -1098.5512      2138.7509    
       977   125.60606     -4571.9035     -4534.8371      8582.2616      981.89219      10.905291      12.127502      8.0302813      93.819752      91.292159      111.90361      28004.297     -6494.1064      4236.5937      53.773527     -1164.636       2209.9269    
       978   125.64065     -4571.9051     -4534.8285      8846.2668      981.89219      10.905291      12.127502      8.0302813      93.819752      91.292159      111.90361      28223.791     -6065.223       4380.2323      22.726565     -1229.9427      2281.9481    
       979   125.66041     -4571.9049     -4534.8225      9113.6237      981.89219      10.905291      12.127502      8.0302813      93.819752      91.292159      111.90361      28425.194     -5615.9726      4531.6498     -7.481001      -1294.7538      2354.4404    
       980   125.66276     -4571.9069     -4534.8238      9382.2353      981.89219      10.905291      12.127502      8.0302813      93.819752      91.292159      111.90361      28610.599     -5150.1801      4686.2871     -36.515682     -1356.0175      2425.773     
       981   125.64533     -4571.8964     -4534.8185      9670.3904      981.89219      10.905291      12.127502      8.0302813      93.819752      91.292159      111.90361      28815.12      -4662.9257      4858.977      -78.451372     -1404.2325      2492.3035    
       982   125.6063      -4571.8798     -4534.8134      9945.8237      981.89219      10.905291      12.127502      8.0302813      93.819752      91.292159      111.90361      28983.989     -4172.8156      5026.2976     -105.50014     -1462.5311      2563.0676    
       983   125.54443     -4571.8428     -4534.7946      10225.371      981.89219      10.905291      12.127502      8.0302813      93.819752      91.292159      111.90361      29146.265     -3675.2497      5205.099      -131.64069     -1519.1788      2635.4799    
       984   125.4588      -4571.8133     -4534.7904      10501.972      981.89219      10.905291      12.127502      8.0302813      93.819752      91.292159      111.90361      29305.525     -3174.6339      5375.0259     -154.53033     -1570.6835      2702.9384    
       985   125.34902     -4571.7767     -4534.7862      10779.006      981.89219      10.905291      12.127502      8.0302813      93.819752      91.292159      111.90361      29464.151     -2673.0255      5545.8907     -174.88318     -1618.27        2768.3395    
       986   125.21504     -4571.7307     -4534.7797      11056.016      981.89219      10.905291      12.127502      8.0302813      93.819752      91.292159      111.90361      29624.434     -2172.4345      5716.0482     -192.86185     -1660.381       2830.6331    
       987   125.05717     -4571.6804     -4534.776       11331.367      981.89219      10.905291      12.127502      8.0302813      93.819752      91.292159      111.90361      29786.261     -1676.1432      5883.984      -207.2169      -1698.5988      2890.8831    
       988   124.87608     -4571.634      -4534.7831      11603.85       981.89219      10.905291      12.127502      8.0302813      93.819752      91.292159      111.90361      29952.51      -1188.8923      6047.9329     -217.85159     -1731.5203      2951.174     
       989   124.67265     -4571.5708     -4534.7799      11877.554      981.89219      10.905291      12.127502      8.0302813      93.819752      91.292159      111.90361      30123.866     -705.03031      6213.8274     -225.84193     -1758.511       3007.5072    
       990   124.44797     -4571.5044     -4534.7798      12148.491      981.89219      10.905291      12.127502      8.0302813      93.819752      91.292159      111.90361      30303.547     -230.7277       6372.6552     -227.86572     -1782.3644      3053.9313    
       991   124.2034      -4571.4294     -4534.7769      12418.415      981.89219      10.905291      12.127502      8.0302813      93.819752      91.292159      111.90361      30486.648      234.94965      6533.648      -227.70903     -1801.1775      3099.4766    
       992   123.9405      -4571.3491     -4534.7742      12686.732      981.89219      10.905291      12.127502      8.0302813      93.819752      91.292159      111.90361      30676.107      690.68694      6693.4007     -223.56201     -1815.5193      3140.4663    
       993   123.66077     -4571.2598     -4534.7674      12955.003      981.89219      10.905291      12.127502      8.0302813      93.819752      91.292159      111.90361      30874.255      1136.2292      6854.526      -216.11538     -1826.6472      3177.218     
       994   123.36579     -4571.1702     -4534.7649      13220.193      981.89219      10.905291      12.127502      8.0302813      93.819752      91.292159      111.90361      31075.197      1570.0955      7015.2854     -204.25039     -1832.6891      3208.8233    
       995   123.05712     -4571.0768     -4534.7626      13482.997      981.89219      10.905291      12.127502      8.0302813      93.819752      91.292159      111.90361      31280.154      1991.735       7177.1011     -188.56985     -1835.0437      3235.1908    
       996   122.73629     -4570.9798     -4534.7603      13744.265      981.89219      10.905291      12.127502      8.0302813      93.819752      91.292159      111.90361      31489.338      2402.111       7341.3464     -168.95657     -1834.4311      3256.1098    
       997   122.40484     -4570.8796     -4534.7579      14005.232      981.89219      10.905291      12.127502      8.0302813      93.819752      91.292159      111.90361      31702.57       2802.1764      7510.951      -145.8224      -1831.1276      3271.6855    
       998   122.06421     -4570.7771     -4534.756       14263.163      981.89219      10.905291      12.127502      8.0302813      93.819752      91.292159      111.90361      31916.249      3189.1729      7684.0671     -119.03663     -1825.5392      3281.64      
       999   121.7156      -4570.6714     -4534.7531      14527.87       981.89219      10.905291      12.127502      8.0302813      93.819752      91.292159      111.90361      32130.245      3589.1499      7864.2144     -92.89967      -1816.6853      3279.8934    
      1000   121.36038     -4570.5643     -4534.7508      14782.228      981.89219      10.905291      12.127502      8.0302813      93.819752      91.292159      111.90361      32343.738      3953.1483      8049.799      -59.401216     -1807.9602      3277.8334    
Loop time of 57.2957 on 1 procs for 1000 steps with 100 atoms

Performance: 0.151 ns/day, 159.155 hours/ns, 17.453 timesteps/s, 1.745 katom-step/s
99.7% CPU use with 1 MPI tasks x no OpenMP threads

MPI task timing breakdown:
Section |  min time  |  avg time  |  max time  |%varavg| %total
---------------------------------------------------------------
Pair    | 27.508     | 27.508     | 27.508     |   0.0 | 48.01
Neigh   | 27.671     | 27.671     | 27.671     |   0.0 | 48.30
Comm    | 0.06196    | 0.06196    | 0.06196    |   0.0 |  0.11
Output  | 0.1909     | 0.1909     | 0.1909     |   0.0 |  0.33
Modify  | 1.8556     | 1.8556     | 1.8556     |   0.0 |  3.24
Other   |            | 0.00817    |            |       |  0.01

Nlocal:            100 ave         100 max         100 min
Histogram: 1 0 0 0 0 0 0 0 0 0
Nghost:           4511 ave        4511 max        4511 min
Histogram: 1 0 0 0 0 0 0 0 0 0
Neighs:          78077 ave       78077 max       78077 min
Histogram: 1 0 0 0 0 0 0 0 0 0

Total # of neighbors = 78077
Ave neighs/atom = 780.77
Neighbor list builds = 1000
Dangerous builds not checked
System init for write_restart ...
Total wall time: 0:00:57
